TITLE = "Simulation tippe-top gyro"
VARIABLES = "t"
"my"
"lambda"
"ny"
"xi"
"omikron"
"theta"
"phi"
"psi"
"xc"
"yc"
ZONE T = "ZONE 001"
STRANDID=0, SOLUTIONTIME=0
