TITLE = "Simulation tippe-top gyro"
VARIABLES = "t"
"my"
"lambda"
"ny"
"xi"
"omikron"
"theta"
"phi"
"psi"
"xc"
"yc"
ZONE T = "ZONE 001"
STRANDID=0, SOLUTIONTIME=0
I=0 , J=1, K=1, ZONETYPE=Ordered
DATAPACKING = POINT
DT = (SINGLE SINGLE SINGLE SINGLE SINGLE SINGLE SINGLE SINGLE SINGLE SINGLE SINGLE )
